BEGIN_CFG
 Size
    6
 Supercell
         4.396834      0.000000      0.000000
         0.000000      2.538513      0.000000
         0.000000      0.000000     15.218062
 AtomData:  id type       cartes_x      cartes_y      cartes_z           fx          fy          fz
             1    0       0.000000      0.000000      0.000000     0.003987   -0.000000   -0.093326
             2    0       1.465610      0.000000      2.072690    -0.001769    0.000000    0.000555
             3    0       2.931220      0.000000      4.145370    -0.002171    0.000001    0.092845
             4    0       2.198420      1.269260      0.000000     0.003934    0.000000   -0.093462
             5    0       3.664030      1.269260      2.072690    -0.001879   -0.000000    0.000606
             6    0       0.732810      1.269260      4.145370    -0.002101   -0.000001    0.092782
 Energy
        -20.568577940000
 PlusStress:  xx          yy          zz          yz          xz          xy
        -1.61627    -1.63388    -0.55849    -0.00000    -0.02493    -0.00000
 Feature   EFS_by       VASP
END_CFG

BEGIN_CFG
 Size
    1
 Supercell
         9.000000      0.000000      0.000000
         0.000000      9.000000      0.000000
         0.000000      0.000000      9.000000
 AtomData:  id type       cartes_x      cartes_y      cartes_z           fx          fy          fz
             1    0       0.000000      0.000000      0.000000     0.000017    0.000020   -0.000042
 Energy
         -0.048335520000
 PlusStress:  xx          yy          zz          yz          xz          xy
        -0.18718    -0.18718    -0.18720    -0.00001    -0.00001     0.00001
 Feature   EFS_by	VASP
END_CFG

BEGIN_CFG
 Size
    164
 Supercell
        23.656130      0.000000      0.000000
         0.000000     24.231080      0.000000
         0.000000      0.000000     19.363400
 AtomData:  id type       cartes_x      cartes_y      cartes_z           fx          fy          fz
             1    0       4.396830      7.615540      0.000000     0.002304    0.000019   -0.109944
             2    0       6.595230      8.884800      0.000000    -0.036579    0.058343   -0.105742
             3    0       4.396830     10.154050      0.000000    -0.075737    0.052004   -0.130498
             4    0       6.595230     11.423310      0.000000    -0.006665    0.090125   -0.130449
             5    0       5.862430      7.615540      2.072690    -0.002473    0.000009   -0.076236
             6    0       8.060830      8.884800      2.072690    -0.000759   -0.000589   -0.076744
             7    0       5.862430     10.154050      2.072690    -0.002814    0.002152   -0.043105
             8    0       8.060830     11.423310      2.072690     0.008464    0.035285   -0.084562
             9    0       8.793630      7.615540      0.000000     0.069747    0.000022   -0.105635
            10    0      10.992130      8.884800      0.000000     0.078537    0.037117   -0.130237
            11    0       8.793630     10.154050      0.000000    -0.002511   -0.000313   -0.110037
            12    0      10.992130     11.423310      0.000000    -0.044370   -0.125424    0.228596
            13    0      10.259230      7.615540      2.072690     0.000813    0.000005   -0.042283
            14    0      12.457730      8.884800      2.072690     0.514285    0.091740   -0.263385
            15    0      10.259230     10.154050      2.072690     0.024568    0.027098   -0.085253
            16    0      12.457730     11.423310      2.072690     0.082669    0.011580   -0.005182
            17    0      13.190530      7.615540      0.000000    -0.082083    0.000023    0.281688
            18    0      13.190530     10.154050      0.000000    -0.410340   -0.238447    0.371200
            19    0      14.656130      7.615540      2.072690    -0.573097   -0.000011    0.085348
            20    0       4.396830     12.692570      0.000000     0.038910   -0.070852    0.281519
            21    0       6.595230     13.961820      0.000000    -0.005872   -0.470437    0.371133
            22    0       5.862430     12.692570      2.072690    -0.178653    0.492637   -0.263513
            23    0       8.060830     13.961820      2.072690    -0.034072    0.080426   -0.005783
            24    0       8.793630     12.692570      0.000000    -0.089139   -0.102224    0.228658
            25    0      10.259230     12.692570      2.072690     0.064719    0.112330   -0.132708
            26    0       7.328030      7.615540      4.145370     0.001618    0.000013    0.077065
            27    0       5.129630      8.884800      4.145370    -0.086036    0.060616   -0.048457
            28    0       7.328030     10.154050      4.145370    -0.005981    0.110826   -0.048622
            29    0       5.129630     11.423310      4.145370    -0.043926    0.078628   -0.078097
            30    0       4.396830      7.615540      6.218060    -0.032596    0.000020    0.024414
            31    0       6.595230      8.884800      6.218060    -0.031615    0.049802    0.112782
            32    0       4.396830     10.154050      6.218060    -0.076407   -0.017250    0.027763
            33    0       6.595230     11.423310      6.218060     0.053665    0.055694    0.028345
            34    0      11.724930      7.615540      4.145370     0.092040    0.000017   -0.078377
            35    0       9.526430      8.884800      4.145370     0.103356    0.043968   -0.048642
            36    0      11.724930     10.154050      4.145370     0.348849    0.185248   -0.013070
            37    0       9.526430     11.423310      4.145370     0.010262    0.014862    0.060464
            38    0       8.793630      7.615540      6.218060     0.060121    0.000019    0.113441
            39    0      10.992130      8.884800      6.218060     0.018635    0.072148    0.027765
            40    0       8.793630     10.154050      6.218060     0.014934    0.029918    0.023948
            41    0      10.992130     11.423310      6.218060     0.341585    0.352836    0.227934
            42    0      13.923330      8.884800      4.145370     0.035255   -0.005153   -0.058063
            43    0      13.923330     11.423310      4.145370    -0.561629   -0.286294   -0.016869
            44    0      13.190530      7.615540      6.218060     0.127019    0.000020    0.045299
            45    0      13.190530     10.154050      6.218060    -0.030939    0.047404    0.000508
            46    0       7.328030     12.692570      4.145370    -0.010496    0.389452   -0.012881
            47    0       5.129630     13.961820      4.145370    -0.013988    0.028680   -0.058090
            48    0       7.328030     15.231080      4.145370     0.036357   -0.629677   -0.016856
            49    0       4.396830     12.692570      6.218060    -0.065115    0.108922    0.044943
            50    0       6.595230     13.961820      6.218060     0.051982    0.000808    0.000218
            51    0      11.724930     12.692570      4.145370     0.087997    0.015723    0.045940
            52    0       9.526430     13.961820      4.145370    -0.022438    0.084523    0.046060
            53    0       8.793630     12.692570      6.218060     0.132016    0.472176    0.227385
            54    0      10.992130     13.961820      6.218060    -0.292195   -0.497113   -0.070293
            55    0       5.862430      7.615540      8.290750    -0.018049    0.000013   -0.023620
            56    0       8.060830      8.884800      8.290750     0.006750    0.012038   -0.025375
            57    0       5.862430     10.154050      8.290750    -0.105511    0.180918    0.266939
            58    0       8.060830     11.423310      8.290750     0.080276    0.405712    0.357707
            59    0       7.328030      7.615540     10.363400     0.002134    0.000014    0.096946
            60    0       5.129630      8.884800     10.363400    -0.026091   -0.017586    0.029382
            61    0       7.328030     10.154050     10.363400     0.032612    0.020824    0.029602
            62    0       5.129630     11.423310     10.363400     0.183248   -0.307880   -0.490391
            63    0      10.259230      7.615540      8.290750     0.206274    0.000009    0.268938
            64    0      12.457730      8.884800      8.290750     0.001876    0.045457    0.016336
            65    0      10.259230     10.154050      8.290750     0.309587    0.274622    0.355698
            66    0      12.457730     11.423310      8.290750    -0.485548   -0.249722   -0.318929
            67    0      11.724930      7.615540     10.363400    -0.354292    0.000006   -0.491227
            68    0       9.526430      8.884800     10.363400     0.006295    0.030547    0.029418
            69    0       9.526430     11.423310     10.363400    -0.138525   -0.247621   -0.449163
            70    0       5.862430     12.692570      8.290750     0.038261    0.024461    0.016369
            71    0       8.060830     13.961820      8.290750     0.024162   -0.542382   -0.321226
            72    0      10.259230     12.692570      8.290750    -0.018529   -0.032480   -0.081323
            73    0       2.198430      8.884800      0.000000     0.129620    0.022491    0.228737
            74    0       2.198430     11.423310      0.000000     0.412161   -0.233069    0.371155
            75    0       1.465630      7.615540      2.072690    -0.132546    0.000009   -0.132239
            76    0       3.664030      8.884800      2.072690    -0.037162    0.007323   -0.085288
            77    0       1.465630     10.154050      2.072690    -0.053796    0.068098   -0.005839
            78    0       3.664030     11.423310      2.072690    -0.340330    0.399810   -0.262969
            79    0       3.664030     13.961820      2.072690     0.283838   -0.493477    0.084328
            80    0       2.931230      7.615540      4.145370    -0.015654    0.000013    0.060688
            81    0       0.732800      8.884800      4.145370    -0.054822    0.062103    0.046007
            82    0       2.931230     10.154050      4.145370    -0.328602    0.209407   -0.012913
            83    0       0.732800     11.423310      4.145370     0.529941   -0.344452   -0.016774
            84    0       0.000000      7.615540      6.218060     0.577088    0.000009   -0.069542
            85    0       2.198430      8.884800      6.218060    -0.477655    0.118105    0.227327
            86    0       2.198430     11.423310      6.218060    -0.025034   -0.047233    0.001053
            87    0       2.931230     12.692570      4.145370    -0.010185    0.026886   -0.058186
            88    0       1.465630      7.615540      8.290750     0.033713    0.000012   -0.079845
            89    0       3.664030      8.884800      8.290750    -0.394157    0.130401    0.355583
            90    0       1.465630     10.154050      8.290750     0.457469   -0.293551   -0.321335
            91    0       3.664030     11.423310      8.290750    -0.044574   -0.021851    0.018114
            92    0       2.931230      7.615540     10.363400     0.289225    0.000003   -0.448775
            93    0       6.595230      1.269260      0.000000    -0.005874    0.470392    0.371137
            94    0       4.396830      2.538510      0.000000     0.038913    0.070834    0.281546
            95    0       8.060830      1.269260      2.072690    -0.034073   -0.080449   -0.005783
            96    0       5.862430      2.538510      2.072690    -0.178655   -0.492639   -0.263491
            97    0       8.793630      2.538510      0.000000    -0.089141    0.102205    0.228688
            98    0      10.259230      2.538510      2.072690     0.064719   -0.112330   -0.132681
            99    0       6.595230      3.807770      0.000000    -0.006666   -0.090085   -0.130449
           100    0       4.396830      5.077030      0.000000    -0.075739   -0.052032   -0.130523
           101    0       6.595230      6.346280      0.000000    -0.036578   -0.058364   -0.105741
           102    0       8.060830      3.807770      2.072690     0.008465   -0.035274   -0.084559
           103    0       5.862430      5.077030      2.072690    -0.002815   -0.002157   -0.043128
           104    0       8.060830      6.346280      2.072690    -0.000760    0.000589   -0.076742
           105    0      10.992130      3.807770      0.000000    -0.044373    0.125471    0.228599
           106    0       8.793630      5.077030      0.000000    -0.002511    0.000287   -0.110062
           107    0      10.992130      6.346280      0.000000     0.078535   -0.037142   -0.130263
           108    0      12.457730      3.807770      2.072690     0.082668   -0.011579   -0.005182
           109    0      10.259230      5.077030      2.072690     0.024566   -0.027100   -0.085277
           110    0      12.457730      6.346280      2.072690     0.514289   -0.091739   -0.263410
           111    0      13.190530      5.077030      0.000000    -0.410342    0.238420    0.371202
           112    0       7.328030      0.000000      4.145370     0.036356    0.629720   -0.016856
           113    0       5.129630      1.269260      4.145370    -0.013990   -0.028706   -0.058085
           114    0       7.328030      2.538510      4.145370    -0.010494   -0.389464   -0.012909
           115    0       6.595230      1.269260      6.218060     0.051983   -0.000837    0.000226
           116    0       4.396830      2.538510      6.218060    -0.065114   -0.108942    0.044959
           117    0       9.526430      1.269260      4.145370    -0.022442   -0.084556    0.046065
           118    0      11.724930      2.538510      4.145370     0.087998   -0.015733    0.045961
           119    0      10.992130      1.269260      6.218060    -0.292200    0.497062   -0.070288
           120    0       8.793630      2.538510      6.218060     0.132019   -0.472195    0.227406
           121    0       5.129630      3.807770      4.145370    -0.043925   -0.078601   -0.078095
           122    0       7.328030      5.077030      4.145370    -0.005981   -0.110834   -0.048591
           123    0       5.129630      6.346280      4.145370    -0.086034   -0.060622   -0.048459
           124    0       6.595230      3.807770      6.218060     0.053666   -0.055652    0.028344
           125    0       4.396830      5.077030      6.218060    -0.076405    0.017228    0.027748
           126    0       6.595230      6.346280      6.218060    -0.031614   -0.049824    0.112775
           127    0       9.526430      3.807770      4.145370     0.010260   -0.014829    0.060468
           128    0      11.724930      5.077030      4.145370     0.348845   -0.185261   -0.013090
           129    0       9.526430      6.346280      4.145370     0.103357   -0.043976   -0.048644
           130    0      10.992130      3.807770      6.218060     0.341584   -0.352800    0.227938
           131    0       8.793630      5.077030      6.218060     0.014935   -0.029941    0.023932
           132    0      10.992130      6.346280      6.218060     0.018632   -0.072163    0.027759
           133    0      13.923330      3.807770      4.145370    -0.561633    0.286329   -0.016868
           134    0      13.923330      6.346280      4.145370     0.035261    0.005139   -0.058093
           135    0      13.190530      5.077030      6.218060    -0.030936   -0.047423    0.000515
           136    0       8.060830      1.269260      8.290750     0.024164    0.542353   -0.321232
           137    0       5.862430      2.538510      8.290750     0.038260   -0.024460    0.016388
           138    0      10.259230      2.538510      8.290750    -0.018531    0.032483   -0.081304
           139    0       8.060830      3.807770      8.290750     0.080280   -0.405694    0.357709
           140    0       5.862430      5.077030      8.290750    -0.105509   -0.180921    0.266918
           141    0       8.060830      6.346280      8.290750     0.006750   -0.012035   -0.025377
           142    0       5.129630      3.807770     10.363400     0.183249    0.307910   -0.490397
           143    0       7.328030      5.077030     10.363400     0.032611   -0.020833    0.029607
           144    0       5.129630      6.346280     10.363400    -0.026090    0.017577    0.029351
           145    0      12.457730      3.807770      8.290750    -0.485554    0.249729   -0.318931
           146    0      10.259230      5.077030      8.290750     0.309587   -0.274630    0.355676
           147    0      12.457730      6.346280      8.290750     0.001877   -0.045459    0.016310
           148    0       9.526430      3.807770     10.363400    -0.138529    0.247650   -0.449172
           149    0       9.526430      6.346280     10.363400     0.006298   -0.030558    0.029387
           150    0       3.664030      1.269260      2.072690     0.283841    0.493437    0.084331
           151    0       2.198430      3.807770      0.000000     0.412168    0.233104    0.371159
           152    0       2.198430      6.346280      0.000000     0.129622   -0.022513    0.228714
           153    0       3.664030      3.807770      2.072690    -0.340331   -0.399796   -0.262972
           154    0       1.465630      5.077030      2.072690    -0.053797   -0.068104   -0.005839
           155    0       3.664030      6.346280      2.072690    -0.037160   -0.007322   -0.085289
           156    0       2.931230      2.538510      4.145370    -0.010184   -0.026891   -0.058164
           157    0       0.732800      3.807770      4.145370     0.529949    0.344475   -0.016774
           158    0       2.931230      5.077030      4.145370    -0.328602   -0.209417   -0.012934
           159    0       0.732800      6.346280      4.145370    -0.054825   -0.062110    0.045980
           160    0       2.198430      3.807770      6.218060    -0.025032    0.047268    0.001054
           161    0       2.198430      6.346280      6.218060    -0.477657   -0.118125    0.227295
           162    0       3.664030      3.807770      8.290750    -0.044573    0.021875    0.018113
           163    0       1.465630      5.077030      8.290750     0.457474    0.293541   -0.321334
           164    0       3.664030      6.346280      8.290750    -0.394160   -0.130401    0.355556
 Energy
       -530.791184270000
 PlusStress:  xx          yy          zz          yz          xz          xy
       -52.72742   -52.70959   -52.18042     0.00007    -0.00590     0.00005
 Feature   EFS_by	VASP
END_CFG

BEGIN_CFG
 Size
    164
 Supercell
        23.656100      0.000000      0.000000
         0.000000     24.231080      0.000000
         0.000000      0.000000     19.363400
 AtomData:  id type       cartes_x      cartes_y      cartes_z           fx          fy          fz
             1    0       4.396800      7.615540      0.000000     0.002310    0.000019   -0.109946
             2    0       6.595200      8.884800      0.000000    -0.036572    0.058340   -0.105738
             3    0       4.396800     10.154050      0.000000    -0.075733    0.052003   -0.130502
             4    0       6.595200     11.423310      0.000000    -0.006653    0.090127   -0.130441
             5    0       5.862400      7.615540      2.072690    -0.002468    0.000009   -0.076238
             6    0       8.060800      8.884800      2.072690    -0.000460   -0.000588   -0.076746
             7    0       5.862400     10.154050      2.072690    -0.002816    0.002154   -0.043107
             8    0       8.060800     11.423310      2.072690     0.008756    0.035283   -0.084564
             9    0       8.793600      7.615540      0.000000     0.069810    0.000022   -0.105532
            10    0      10.992100      8.884800      0.000000     0.078542    0.037112   -0.130336
            11    0       8.793600     10.154050      0.000000    -0.002451   -0.000312   -0.109932
            12    0      10.992100     11.423310      0.000000    -0.044355   -0.125406    0.228506
            13    0      10.259300      7.615540      2.072690     0.000005    0.000004   -0.042264
            14    0      12.457700      8.884800      2.072690     0.514584    0.091741   -0.263386
            15    0      10.259300     10.154050      2.072690     0.023814    0.027110   -0.085263
            16    0      12.457700     11.423310      2.072690     0.082948    0.011615   -0.005187
            17    0      13.190500      7.615540      0.000000    -0.082074    0.000023    0.281681
            18    0      13.190500     10.154050      0.000000    -0.410323   -0.238453    0.371191
            19    0      14.656100      7.615540      2.072690    -0.573087   -0.000011    0.085345
            20    0       4.396800     12.692570      0.000000     0.038914   -0.070850    0.281520
            21    0       6.595200     13.961820      0.000000    -0.005868   -0.470440    0.371138
            22    0       5.862400     12.692570      2.072690    -0.178650    0.492639   -0.263515
            23    0       8.060800     13.961820      2.072690    -0.033941    0.080329   -0.005780
            24    0       8.793600     12.692570      0.000000    -0.089073   -0.102229    0.228753
            25    0      10.259300     12.692570      2.072690     0.064137    0.112419   -0.132743
            26    0       7.328000      7.615540      4.145370     0.001625    0.000013    0.077059
            27    0       5.129600      8.884800      4.145370    -0.086041    0.060619   -0.048450
            28    0       7.328000     10.154050      4.145370    -0.005972    0.110825   -0.048625
            29    0       5.129600     11.423310      4.145370    -0.043923    0.078625   -0.078093
            30    0       4.396800      7.615540      6.218060    -0.032587    0.000020    0.024414
            31    0       6.595200      8.884800      6.218060    -0.031600    0.049805    0.112785
            32    0       4.396800     10.154050      6.218060    -0.076393   -0.017250    0.027762
            33    0       6.595200     11.423310      6.218060     0.053674    0.055691    0.028350
            34    0      11.724900      7.615540      4.145370     0.092092    0.000017   -0.078276
            35    0       9.526400      8.884800      4.145370     0.103364    0.043965   -0.048743
            36    0      11.724900     10.154050      4.145370     0.348906    0.185244   -0.012969
            37    0       9.526400     11.423310      4.145370     0.010264    0.014860    0.060367
            38    0       8.793600      7.615540      6.218060     0.060180    0.000019    0.113543
            39    0      10.992100      8.884800      6.218060     0.018647    0.072144    0.027667
            40    0       8.793600     10.154050      6.218060     0.014992    0.029924    0.024051
            41    0      10.992100     11.423310      6.218060     0.341595    0.352844    0.227839
            42    0      13.923300      8.884800      4.145370     0.035260   -0.005151   -0.058055
            43    0      13.923300     11.423310      4.145370    -0.561618   -0.286298   -0.016858
            44    0      13.190500      7.615540      6.218060     0.127022    0.000020    0.045290
            45    0      13.190500     10.154050      6.218060    -0.030930    0.047401    0.000491
            46    0       7.328000     12.692570      4.145370    -0.010492    0.389450   -0.012887
            47    0       5.129600     13.961820      4.145370    -0.013989    0.028679   -0.058088
            48    0       7.328000     15.231080      4.145370     0.036360   -0.629682   -0.016855
            49    0       4.396800     12.692570      6.218060    -0.065108    0.108927    0.044943
            50    0       6.595200     13.961820      6.218060     0.051990    0.000809    0.000225
            51    0      11.724900     12.692570      4.145370     0.088056    0.015737    0.046013
            52    0       9.526400     13.961820      4.145370    -0.022428    0.084491    0.046011
            53    0       8.793600     12.692570      6.218060     0.132074    0.472168    0.227482
            54    0      10.992100     13.961820      6.218060    -0.292181   -0.497085   -0.070328
            55    0       5.862400      7.615540      8.290750    -0.018046    0.000012   -0.023622
            56    0       8.060800      8.884800      8.290750     0.007050    0.012036   -0.025370
            57    0       5.862400     10.154050      8.290750    -0.105508    0.180917    0.266936
            58    0       8.060800     11.423310      8.290750     0.080564    0.405697    0.357701
            59    0       7.328000      7.615540     10.363400     0.002144    0.000014    0.096941
            60    0       5.129600      8.884800     10.363400    -0.026097   -0.017590    0.029385
            61    0       7.328000     10.154050     10.363400     0.032622    0.020822    0.029596
            62    0       5.129600     11.423310     10.363400     0.183250   -0.307876   -0.490387
            63    0      10.259300      7.615540      8.290750     0.205523    0.000008    0.268963
            64    0      12.457700      8.884800      8.290750     0.002155    0.045462    0.016338
            65    0      10.259300     10.154050      8.290750     0.308932    0.274628    0.355783
            66    0      12.457700     11.423310      8.290750    -0.485285   -0.249690   -0.318900
            67    0      11.724900      7.615540     10.363400    -0.354249    0.000005   -0.491135
            68    0       9.526400      8.884800     10.363400     0.006300    0.030553    0.029318
            69    0       9.526400     11.423310     10.363400    -0.138505   -0.247628   -0.449255
            70    0       5.862400     12.692570      8.290750     0.038266    0.024461    0.016367
            71    0       8.060800     13.961820      8.290750     0.024290   -0.542472   -0.321236
            72    0      10.259300     12.692570      8.290750    -0.019036   -0.032454   -0.081294
            73    0       2.198400      8.884800      0.000000     0.129627    0.022493    0.228734
            74    0       2.198400     11.423310      0.000000     0.412166   -0.233068    0.371154
            75    0       1.465600      7.615540      2.072690    -0.132541    0.000009   -0.132275
            76    0       3.664000      8.884800      2.072690    -0.037164    0.007321   -0.085290
            77    0       1.465600     10.154050      2.072690    -0.053786    0.068094   -0.005872
            78    0       3.664000     11.423310      2.072690    -0.340331    0.399813   -0.262972
            79    0       3.664000     13.961820      2.072690     0.283830   -0.493481    0.084325
            80    0       2.931200      7.615540      4.145370    -0.015568    0.000013    0.060686
            81    0       0.732800      8.884800      4.145370    -0.054945    0.062107    0.045998
            82    0       2.931200     10.154050      4.145370    -0.328519    0.209411   -0.012915
            83    0       0.732800     11.423310      4.145370     0.529827   -0.344432   -0.016786
            84    0       0.000000      7.615540      6.218060     0.576981    0.000009   -0.069553
            85    0       2.198400      8.884800      6.218060    -0.477591    0.118131    0.227357
            86    0       2.198400     11.423310      6.218060    -0.025007   -0.047230    0.001083
            87    0       2.931200     12.692570      4.145370    -0.010153    0.026916   -0.058185
            88    0       1.465600      7.615540      8.290750     0.033729    0.000012   -0.079815
            89    0       3.664000      8.884800      8.290750    -0.394162    0.130400    0.355581
            90    0       1.465600     10.154050      8.290750     0.457465   -0.293552   -0.321334
            91    0       3.664000     11.423310      8.290750    -0.044581   -0.021851    0.018108
            92    0       2.931200      7.615540     10.363400     0.289220    0.000003   -0.448772
            93    0       6.595200      1.269260      0.000000    -0.005870    0.470396    0.371141
            94    0       4.396800      2.538510      0.000000     0.038917    0.070833    0.281547
            95    0       8.060800      1.269260      2.072690    -0.033942   -0.080351   -0.005779
            96    0       5.862400      2.538510      2.072690    -0.178651   -0.492641   -0.263492
            97    0       8.793600      2.538510      0.000000    -0.089075    0.102210    0.228784
            98    0      10.259300      2.538510      2.072690     0.064137   -0.112418   -0.132716
            99    0       6.595200      3.807770      0.000000    -0.006654   -0.090087   -0.130442
           100    0       4.396800      5.077030      0.000000    -0.075735   -0.052030   -0.130527
           101    0       6.595200      6.346280      0.000000    -0.036570   -0.058360   -0.105737
           102    0       8.060800      3.807770      2.072690     0.008757   -0.035271   -0.084560
           103    0       5.862400      5.077030      2.072690    -0.002816   -0.002160   -0.043129
           104    0       8.060800      6.346280      2.072690    -0.000460    0.000588   -0.076744
           105    0      10.992100      3.807770      0.000000    -0.044357    0.125453    0.228511
           106    0       8.793600      5.077030      0.000000    -0.002451    0.000287   -0.109957
           107    0      10.992100      6.346280      0.000000     0.078541   -0.037137   -0.130362
           108    0      12.457700      3.807770      2.072690     0.082947   -0.011614   -0.005187
           109    0      10.259300      5.077030      2.072690     0.023812   -0.027113   -0.085287
           110    0      12.457700      6.346280      2.072690     0.514587   -0.091740   -0.263410
           111    0      13.190500      5.077030      0.000000    -0.410325    0.238426    0.371192